
Host: Roger.local

Timers On : Sat Nov  7 22:06:16 2015
Timers Off: Sat Nov  7 22:06:16 2015

Wall Time:        0.00 seconds


***********************************************************

Host: Roger.local

Timers On : Sat Nov  7 22:07:50 2015
Timers Off: Sat Nov  7 22:07:50 2015

Wall Time:        0.00 seconds


***********************************************************

Host: Roger.local

Timers On : Sat Nov  7 22:14:33 2015
Timers Off: Sat Nov  7 22:14:33 2015

Wall Time:        0.00 seconds


***********************************************************

Host: s172-20-152-h84.paws.uga.edu

Timers On : Tue Nov 10 15:46:21 2015
Timers Off: Tue Nov 10 15:46:21 2015

Wall Time:        0.00 seconds


***********************************************************

Host: s172-20-152-h84.paws.uga.edu

Timers On : Tue Nov 10 15:47:35 2015
Timers Off: Tue Nov 10 15:47:35 2015

Wall Time:        0.00 seconds


***********************************************************

Host: s172-20-152-h84.paws.uga.edu

Timers On : Tue Nov 10 15:48:09 2015
Timers Off: Tue Nov 10 15:48:09 2015

Wall Time:        0.00 seconds


***********************************************************

Host: s172-20-152-h84.paws.uga.edu

Timers On : Tue Nov 10 16:19:58 2015
Timers Off: Tue Nov 10 16:19:58 2015

Wall Time:        0.00 seconds


***********************************************************
